# vtk DataFile Version 4.2
 vtk output
ASCII
DATASET STRUCTURED_POINTS
DIMENSIONS 42 56 101
SPACING 0.2 0.2 0.2
ORIGIN -7.6753626 -5.7539506 4.9593763
POINT_DATA  237552
SCALARS u float 1
LOOKUP_TABLE default
-3.476 -3.342 -3.214 -3.087 -2.962 -2.84 -2.723 -2.61 -2.498 -2.389 -2.286 -2.195 -2.106 -2.019 -1.937 -1.865 -1.804 -1.744 -1.691 -1.648 -1.618 -1.592 -1.571 -1.566 -1.569 -1.582 -1.603 -1.627 -1.668 -1.721 -1.778 -1.84 -1.913 -1.991 -2.079 -2.177 -2.276 -2.378 -2.487 -2.605 -2.728 -2.855 -3.408 -3.273 -3.142 -3.013 -2.885 -2.76 -2.639 -2.526 -2.413 -2.303 -2.198 -2.102 -2.007 -1.917 -1.835 -1.76 -1.69 -1.626 -1.572 -1.528 -1.493 -1.463 -1.438 -1.434 -1.436 -1.445 -1.461 -1.491 -1.532 -1.581 -1.637 -1.697 -1.774 -1.857 -1.945 -2.04 -2.139 -2.245 -2.359 -2.479 -2.604 -2.729 -3.345 -3.208 -3.077 -2.946 -2.816 -2.689 -2.568 -2.45 -2.333 -2.219 -2.114 -2.015 -1.916 -1.822 -1.736 -1.66 -1.587 -1.517 -1.46 -1.415 -1.373 -1.339 -1.317 -1.307 -1.305 -1.311 -1.328 -1.358 -1.398 -1.445 -1.498 -1.564 -1.641 -1.724 -1.812 -1.906 -2.009 -2.12 -2.236 -2.355 -2.477 -2.605 -3.29 -3.151 -3.018 -2.886 -2.753 -2.625 -2.504 -2.383 -2.264 -2.148 -2.04 -1.936 -1.835 -1.739 -1.65 -1.566 -1.488 -1.419 -1.36 -1.306 -1.261 -1.225 -1.202 -1.187 -1.18 -1.183 -1.201 -1.23 -1.267 -1.309 -1.365 -1.435 -1.511 -1.592 -1.681 -1.776 -1.885 -1.997 -2.112 -2.232 -2.355 -2.487 -3.244 -3.105 -2.969 -2.833 -2.7 -2.57 -2.445 -2.324 -2.202 -2.085 -1.976 -1.868 -1.761 -1.664 -1.572 -1.486 -1.401 -1.328 -1.266 -1.208 -1.153 -1.12 -1.091 -1.071 -1.062 -1.066 -1.082 -1.105 -1.136 -1.184 -1.244 -1.31 -1.382 -1.462 -1.556 -1.656 -1.763 -1.874 -1.991 -2.111 -2.24 -2.376 -3.205 -3.064 -2.928 -2.793 -2.658 -2.527 -2.399 -2.275 -2.15 -2.03 -1.919 -1.809 -1.7 -1.6 -1.503 -1.41 -1.326 -1.251 -1.179 -1.117 -1.064 -1.023 -0.99 -0.963 -0.953 -0.955 -0.964 -0.985 -1.018 -1.067 -1.123 -1.185 -1.258 -1.345 -1.438 -1.54 -1.642 -1.754 -1.875 -2.001 -2.131 -2.266 -3.171 -3.029 -2.893 -2.758 -2.622 -2.49 -2.362 -2.236 -2.11 -1.991 -1.874 -1.759 -1.648 -1.545 -1.446 -1.349 -1.261 -1.18 -1.105 -1.037 -0.983 -0.935 -0.892 -0.867 -0.853 -0.849 -0.856 -0.875 -0.909 -0.952 -1.004 -1.068 -1.145 -1.231 -1.324 -1.422 -1.527 -1.645 -1.767 -1.894 -2.024 -2.155 -3.149 -3.007 -2.87 -2.732 -2.597 -2.462 -2.332 -2.205 -2.079 -1.956 -1.838 -1.721 -1.61 -1.502 -1.396 -1.297 -1.208 -1.122 -1.04 -0.971 -0.909 -0.853 -0.812 -0.781 -0.761 -0.749 -0.755 -0.774 -0.803 -0.842 -0.892 -0.959 -1.036 -1.119 -1.21 -1.312 -1.421 -1.539 -1.662 -1.788 -1.915 -2.053 -3.135 -2.992 -2.854 -2.717 -2.58 -2.447 -2.316 -2.186 -2.058 -1.935 -1.815 -1.693 -1.581 -1.47 -1.362 -1.261 -1.165 -1.071 -0.99 -0.915 -0.846 -0.786 -0.74 -0.704 -0.674 -0.663 -0.665 -0.679 -0.701 -0.741 -0.794 -0.858 -0.928 -1.011 -1.105 -1.21 -1.32 -1.434 -1.557 -1.685 -1.821 -1.962 -3.128 -2.984 -2.844 -2.708 -2.57 -2.437 -2.307 -2.174 -2.048 -1.923 -1.8 -1.68 -1.564 -1.449 -1.338 -1.234 -1.134 -1.037 -0.949 -0.868 -0.794 -0.731 -0.679 -0.632 -0.604 -0.588 -0.582 -0.586 -0.612 -0.65 -0.697 -0.757 -0.829 -0.914 -1.009 -1.112 -1.219 -1.336 -1.462 -1.594 -1.73 -1.869 -3.129 -2.988 -2.848 -2.711 -2.575 -2.44 -2.309 -2.176 -2.049 -1.922 -1.797 -1.675 -1.558 -1.44 -1.329 -1.22 -1.112 -1.016 -0.923 -0.835 -0.757 -0.688 -0.624 -0.578 -0.543 -0.518 -0.506 -0.513 -0.532 -0.562 -0.608 -0.666 -0.741 -0.824 -0.915 -1.016 -1.126 -1.247 -1.371 -1.503 -1.639 -1.779 -3.14 -2.998 -2.859 -2.723 -2.586 -2.452 -2.321 -2.19 -2.061 -1.934 -1.808 -1.685 -1.563 -1.445 -1.329 -1.216 -1.108 -1.006 -0.906 -0.814 -0.73 -0.652 -0.589 -0.535 -0.491 -0.458 -0.445 -0.446 -0.456 -0.485 -0.53 -0.586 -0.656 -0.735 -0.825 -0.93 -1.043 -1.162 -1.285 -1.416 -1.554 -1.699 -3.157 -3.016 -2.877 -2.742 -2.605 -2.472 -2.341 -2.21 -2.082 -1.954 -1.825 -1.703 -1.581 -1.459 -1.341 -1.225 -1.112 -1.003 -0.903 -0.806 -0.713 -0.634 -0.561 -0.5 -0.45 -0.415 -0.394 -0.385 -0.394 -0.419 -0.457 -0.511 -0.574 -0.657 -0.75 -0.852 -0.961 -1.078 -1.205 -1.337 -1.478 -1.623 -3.182 -3.045 -2.908 -2.772 -2.638 -2.506 -2.374 -2.244 -2.115 -1.986 -1.859 -1.734 -1.608 -1.484 -1.362 -1.244 -1.13 -1.017 -0.907 -0.806 -0.712 -0.623 -0.545 -0.477 -0.422 -0.379 -0.349 -0.338 -0.342 -0.358 -0.394 -0.442 -0.509 -0.588 -0.675 -0.775 -0.885 -1.007 -1.134 -1.266 -1.404 -1.547 -3.218 -3.081 -2.945 -2.811 -2.677 -2.545 -2.414 -2.285 -2.155 -2.027 -1.901 -1.772 -1.646 -1.522 -1.398 -1.276 -1.155 -1.041 -0.928 -0.82 -0.718 -0.625 -0.541 -0.467 -0.403 -0.353 -0.32 -0.3 -0.295 -0.31 -0.341 -0.387 -0.449 -0.522 -0.611 -0.711 -0.821 -0.94 -1.065 -1.196 -1.334 -1.483 -3.259 -3.123 -2.988 -2.856 -2.724 -2.594 -2.465 -2.336 -2.208 -2.078 -1.95 -1.823 -1.693 -1.565 -1.439 -1.315 -1.193 -1.07 -0.952 -0.843 -0.735 -0.637 -0.546 -0.463 -0.396 -0.34 -0.296 -0.271 -0.263 -0.272 -0.295 -0.337 -0.395 -0.467 -0.555 -0.653 -0.759 -0.877 -1.003 -1.137 -1.276 -1.422 -3.308 -3.175 -3.043 -2.913 -2.783 -2.654 -2.525 -2.396 -2.268 -2.139 -2.01 -1.881 -1.751 -1.622 -1.492 -1.363 -1.235 -1.112 -0.991 -0.872 -0.762 -0.656 -0.56 -0.473 -0.397 -0.332 -0.286 -0.254 -0.239 -0.239 -0.259 -0.298 -0.352 -0.421 -0.501 -0.598 -0.705 -0.824 -0.947 -1.082 -1.22 -1.362 -3.366 -3.235 -3.105 -2.976 -2.846 -2.719 -2.592 -2.464 -2.337 -2.207 -2.077 -1.945 -1.816 -1.683 -1.551 -1.419 -1.287 -1.157 -1.033 -0.912 -0.795 -0.685 -0.583 -0.489 -0.406 -0.339 -0.285 -0.244 -0.222 -0.22 -0.235 -0.264 -0.315 -0.379 -0.46 -0.556 -0.66 -0.776 -0.897 -1.031 -1.171 -1.317 -3.43 -3.3 -3.173 -3.045 -2.918 -2.794 -2.668 -2.542 -2.414 -2.285 -2.153 -2.02 -1.885 -1.749 -1.614 -1.48 -1.345 -1.212 -1.081 -0.954 -0.834 -0.716 -0.611 -0.513 -0.426 -0.349 -0.289 -0.245 -0.217 -0.207 -0.214 -0.243 -0.288 -0.349 -0.428 -0.516 -0.62 -0.735 -0.859 -0.99 -1.13 -1.273 -3.5 -3.374 -3.249 -3.124 -3.001 -2.877 -2.752 -2.625 -2.497 -2.367 -2.235 -2.1 -1.963 -1.824 -1.683 -1.544 -1.405 -1.268 -1.134 -1.004 -0.877 -0.759 -0.645 -0.542 -0.448 -0.37 -0.303 -0.252 -0.218 -0.203 -0.207 -0.23 -0.268 -0.326 -0.399 -0.488 -0.59 -0.701 -0.824 -0.952 -1.089 -1.234 -3.578 -3.456 -3.333 -3.21 -3.088 -2.965 -2.84 -2.715 -2.587 -2.454 -2.321 -2.182 -2.04 -1.899 -1.756 -1.612 -1.468 -1.326 -1.189 -1.055 -0.923 -0.802 -0.683 -0.577 -0.478 -0.395 -0.322 -0.265 -0.228 -0.207 -0.203 -0.218 -0.258 -0.312 -0.382 -0.467 -0.565 -0.674 -0.794 -0.923 -1.061 -1.205 -3.663 -3.542 -3.421 -3.3 -3.181 -3.061 -2.938 -2.814 -2.684 -2.549 -2.411 -2.267 -2.122 -1.975 -1.827 -1.68 -1.534 -1.388 -1.245 -1.109 -0.975 -0.847 -0.728 -0.614 -0.515 -0.425 -0.348 -0.288 -0.243 -0.217 -0.212 -0.224 -0.256 -0.303 -0.369 -0.452 -0.547 -0.656 -0.774 -0.902 -1.037 -1.178 -3.751 -3.633 -3.517 -3.399 -3.282 -3.164 -3.042 -2.916 -2.784 -2.646 -2.503 -2.355 -2.203 -2.052 -1.898 -1.747 -1.598 -1.45 -1.304 -1.163 -1.027 -0.896 -0.773 -0.657 -0.553 -0.459 -0.38 -0.315 -0.265 -0.236 -0.224 -0.231 -0.258 -0.305 -0.368 -0.446 -0.539 -0.644 -0.757 -0.883 -1.016 -1.158 -3.846 -3.732 -3.618 -3.504 -3.389 -3.272 -3.148 -3.02 -2.885 -2.741 -2.592 -2.439 -2.283 -2.127 -1.969 -1.814 -1.661 -1.511 -1.363 -1.217 -1.08 -0.947 -0.82 -0.702 -0.594 -0.497 -0.416 -0.344 -0.293 -0.26 -0.244 -0.247 -0.272 -0.312 -0.37 -0.445 -0.534 -0.636 -0.752 -0.875 -1.008 -1.146 -3.949 -3.837 -3.725 -3.613 -3.499 -3.385 -3.259 -3.128 -2.984 -2.833 -2.675 -2.517 -2.358 -2.198 -2.039 -1.88 -1.722 -1.57 -1.42 -1.273 -1.132 -0.997 -0.869 -0.75 -0.637 -0.54 -0.454 -0.381 -0.328 -0.29 -0.269 -0.269 -0.287 -0.326 -0.381 -0.452 -0.54 -0.639 -0.75 -0.871 -1.001 -1.138 -4.054 -3.946 -3.836 -3.726 -3.616 -3.501 -3.376 -3.233 -3.079 -2.918 -2.754 -2.592 -2.427 -2.265 -2.103 -1.941 -1.783 -1.627 -1.477 -1.328 -1.184 -1.049 -0.918 -0.798 -0.687 -0.586 -0.496 -0.423 -0.365 -0.323 -0.301 -0.297 -0.314 -0.347 -0.398 -0.466 -0.548 -0.644 -0.754 -0.872 -1.003 -1.138 -4.164 -4.058 -3.951 -3.846 -3.74 -3.624 -3.486 -3.329 -3.164 -2.996 -2.828 -2.66 -2.494 -2.328 -2.164 -2.002 -1.841 -1.685 -1.532 -1.382 -1.237 -1.102 -0.971 -0.848 -0.733 -0.633 -0.543 -0.468 -0.407 -0.361 -0.338 -0.331 -0.342 -0.373 -0.421 -0.488 -0.566 -0.662 -0.766 -0.883 -1.008 -1.143 -4.278 -4.175 -4.073 -3.972 -3.866 -3.741 -3.578 -3.41 -3.239 -3.067 -2.895 -2.724 -2.556 -2.387 -2.222 -2.058 -1.895 -1.738 -1.586 -1.437 -1.291 -1.154 -1.02 -0.899 -0.785 -0.682 -0.592 -0.514 -0.453 -0.404 -0.379 -0.371 -0.38 -0.406 -0.452 -0.513 -0.589 -0.681 -0.781 -0.898 -1.02 -1.154 -4.395 -4.297 -4.2 -4.101 -3.995 -3.824 -3.653 -3.478 -3.304 -3.129 -2.955 -2.783 -2.612 -2.443 -2.277 -2.112 -1.95 -1.791 -1.639 -1.488 -1.343 -1.207 -1.074 -0.951 -0.838 -0.734 -0.643 -0.565 -0.502 -0.454 -0.425 -0.413 -0.417 -0.444 -0.487 -0.545 -0.619 -0.709 -0.807 -0.92 -1.041 -1.17 -4.518 -4.424 -4.329 -4.232 -4.07 -3.893 -3.715 -3.539 -3.362 -3.186 -3.011 -2.837 -2.664 -2.495 -2.33 -2.165 -2.003 -1.846 -1.691 -1.54 -1.396 -1.259 -1.128 -1.004 -0.89 -0.787 -0.695 -0.618 -0.553 -0.506 -0.476 -0.461 -0.466 -0.489 -0.528 -0.583 -0.655 -0.74 -0.836 -0.946 -1.064 -1.19 -4.643 -4.552 -4.461 -4.31 -4.13 -3.949 -3.77 -3.593 -3.415 -3.238 -3.062 -2.889 -2.717 -2.547 -2.38 -2.215 -2.052 -1.894 -1.743 -1.593 -1.448 -1.313 -1.18 -1.059 -0.945 -0.844 -0.752 -0.674 -0.609 -0.561 -0.529 -0.513 -0.516 -0.536 -0.572 -0.626 -0.696 -0.777 -0.873 -0.978 -1.096 -1.22 -4.771 -4.683 -4.546 -4.363 -4.181 -4.0 -3.82 -3.641 -3.464 -3.286 -3.109 -2.935 -2.764 -2.596 -2.43 -2.264 -2.102 -1.946 -1.795 -1.644 -1.502 -1.367 -1.235 -1.115 -1.003 -0.901 -0.81 -0.732 -0.666 -0.619 -0.587 -0.571 -0.572 -0.59 -0.624 -0.676 -0.742 -0.819 -0.913 -1.015 -1.129 -1.25 -4.9 -4.778 -4.594 -4.411 -4.228 -4.046 -3.866 -3.687 -3.509 -3.331 -3.155 -2.982 -2.812 -2.644 -2.478 -2.313 -2.153 -1.999 -1.846 -1.697 -1.555 -1.422 -1.294 -1.173 -1.061 -0.96 -0.87 -0.794 -0.728 -0.681 -0.647 -0.63 -0.63 -0.647 -0.677 -0.728 -0.79 -0.869 -0.958 -1.06 -1.17 -1.291 -5.006 -4.821 -4.636 -4.452 -4.269 -4.088 -3.909 -3.73 -3.552 -3.375 -3.199 -3.027 -2.857 -2.691 -2.525 -2.361 -2.202 -2.049 -1.898 -1.751 -1.612 -1.478 -1.351 -1.232 -1.12 -1.022 -0.933 -0.857 -0.795 -0.746 -0.712 -0.693 -0.694 -0.708 -0.74 -0.787 -0.846 -0.922 -1.01 -1.107 -1.213 -1.333 -5.045 -4.86 -4.676 -4.493 -4.31 -4.129 -3.95 -3.772 -3.594 -3.417 -3.242 -3.071 -2.903 -2.738 -2.572 -2.41 -2.254 -2.102 -1.951 -1.805 -1.668 -1.536 -1.409 -1.294 -1.184 -1.087 -0.997 -0.924 -0.858 -0.813 -0.779 -0.76 -0.76 -0.772 -0.803 -0.847 -0.907 -0.979 -1.063 -1.16 -1.264 -1.381 -5.08 -4.895 -4.712 -4.53 -4.349 -4.169 -3.99 -3.812 -3.636 -3.461 -3.288 -3.117 -2.949 -2.784 -2.62 -2.459 -2.304 -2.153 -2.005 -1.864 -1.726 -1.595 -1.47 -1.356 -1.246 -1.153 -1.067 -0.993 -0.931 -0.884 -0.851 -0.832 -0.831 -0.843 -0.872 -0.915 -0.97 -1.042 -1.123 -1.217 -1.32 -1.433 -5.115 -4.931 -4.748 -4.567 -4.386 -4.207 -4.029 -3.852 -3.676 -3.501 -3.33 -3.161 -2.996 -2.831 -2.67 -2.511 -2.357 -2.207 -2.061 -1.92 -1.785 -1.654 -1.534 -1.421 -1.314 -1.221 -1.136 -1.064 -1.002 -0.957 -0.924 -0.906 -0.905 -0.915 -0.943 -0.983 -1.039 -1.106 -1.187 -1.276 -1.378 -1.488 -5.15 -4.966 -4.784 -4.603 -4.424 -4.245 -4.067 -3.89 -3.715 -3.543 -3.374 -3.207 -3.042 -2.879 -2.719 -2.562 -2.41 -2.261 -2.115 -1.978 -1.845 -1.719 -1.599 -1.487 -1.386 -1.292 -1.209 -1.138 -1.078 -1.034 -1.001 -0.985 -0.982 -0.992 -1.019 -1.058 -1.112 -1.178 -1.256 -1.343 -1.444 -1.549 -5.182 -5.0 -4.819 -4.64 -4.461 -4.283 -4.107 -3.932 -3.759 -3.588 -3.419 -3.254 -3.089 -2.929 -2.77 -2.615 -2.465 -2.317 -2.174 -2.039 -1.908 -1.782 -1.666 -1.556 -1.455 -1.365 -1.283 -1.215 -1.156 -1.112 -1.081 -1.063 -1.062 -1.073 -1.097 -1.136 -1.188 -1.249 -1.327 -1.414 -1.51 -1.614 -5.216 -5.035 -4.855 -4.677 -4.499 -4.321 -4.145 -3.971 -3.8 -3.632 -3.466 -3.301 -3.137 -2.978 -2.823 -2.67 -2.52 -2.375 -2.236 -2.102 -1.971 -1.85 -1.736 -1.628 -1.53 -1.44 -1.361 -1.294 -1.238 -1.194 -1.164 -1.146 -1.145 -1.154 -1.18 -1.215 -1.268 -1.328 -1.404 -1.486 -1.582 -1.684 -5.25 -5.071 -4.892 -4.714 -4.537 -4.361 -4.187 -4.016 -3.846 -3.678 -3.513 -3.348 -3.186 -3.028 -2.875 -2.726 -2.577 -2.434 -2.298 -2.166 -2.036 -1.918 -1.806 -1.7 -1.606 -1.518 -1.441 -1.375 -1.322 -1.28 -1.25 -1.232 -1.231 -1.241 -1.265 -1.3 -1.35 -1.41 -1.482 -1.562 -1.656 -1.757 -5.286 -5.108 -4.93 -4.752 -4.577 -4.403 -4.231 -4.06 -3.891 -3.726 -3.561 -3.398 -3.238 -3.083 -2.932 -2.783 -2.638 -2.498 -2.363 -2.232 -2.108 -1.991 -1.88 -1.777 -1.684 -1.597 -1.525 -1.459 -1.408 -1.367 -1.338 -1.322 -1.32 -1.328 -1.353 -1.386 -1.435 -1.493 -1.564 -1.644 -1.733 -1.834 -5.323 -5.145 -4.967 -4.791 -4.616 -4.444 -4.274 -4.106 -3.939 -3.774 -3.611 -3.45 -3.293 -3.14 -2.99 -2.841 -2.698 -2.562 -2.429 -2.299 -2.178 -2.065 -1.954 -1.856 -1.764 -1.681 -1.61 -1.546 -1.496 -1.455 -1.429 -1.413 -1.411 -1.42 -1.443 -1.478 -1.524 -1.581 -1.65 -1.728 -1.816 -1.914 -5.361 -5.184 -5.007 -4.832 -4.658 -4.488 -4.319 -4.153 -3.988 -3.823 -3.661 -3.503 -3.349 -3.199 -3.05 -2.903 -2.762 -2.629 -2.498 -2.371 -2.253 -2.141 -2.034 -1.937 -1.847 -1.766 -1.697 -1.634 -1.587 -1.546 -1.522 -1.506 -1.505 -1.512 -1.536 -1.57 -1.615 -1.672 -1.737 -1.815 -1.9 -1.995 -5.399 -5.223 -5.048 -4.875 -4.704 -4.535 -4.368 -4.202 -4.039 -3.876 -3.716 -3.56 -3.408 -3.258 -3.112 -2.968 -2.83 -2.698 -2.567 -2.444 -2.329 -2.219 -2.114 -2.021 -1.932 -1.854 -1.786 -1.725 -1.68 -1.641 -1.618 -1.602 -1.602 -1.612 -1.633 -1.665 -1.709 -1.765 -1.829 -1.906 -1.988 -2.081 -5.44 -5.264 -5.091 -4.919 -4.75 -4.583 -4.417 -4.252 -4.09 -3.93 -3.774 -3.619 -3.469 -3.319 -3.174 -3.035 -2.9 -2.768 -2.64 -2.521 -2.408 -2.299 -2.198 -2.106 -2.021 -1.945 -1.878 -1.82 -1.775 -1.739 -1.715 -1.7 -1.7 -1.707 -1.731 -1.763 -1.805 -1.86 -1.921 -1.998 -2.079 -2.17 -5.482 -5.309 -5.137 -4.967 -4.799 -4.633 -4.468 -4.305 -4.144 -3.986 -3.831 -3.68 -3.53 -3.384 -3.241 -3.103 -2.971 -2.84 -2.716 -2.6 -2.488 -2.38 -2.284 -2.193 -2.11 -2.038 -1.971 -1.918 -1.873 -1.839 -1.816 -1.802 -1.802 -1.81 -1.832 -1.863 -1.906 -1.959 -2.018 -2.093 -2.172 -2.26 -5.524 -5.352 -5.183 -5.015 -4.849 -4.684 -4.519 -4.357 -4.199 -4.044 -3.892 -3.742 -3.593 -3.448 -3.309 -3.176 -3.044 -2.916 -2.796 -2.681 -2.571 -2.466 -2.372 -2.282 -2.201 -2.132 -2.069 -2.016 -1.971 -1.939 -1.917 -1.903 -1.904 -1.914 -1.934 -1.966 -2.006 -2.059 -2.12 -2.19 -2.268 -2.355 -5.572 -5.402 -5.234 -5.067 -4.901 -4.736 -4.574 -4.415 -4.258 -4.106 -3.955 -3.806 -3.66 -3.518 -3.381 -3.249 -3.118 -2.994 -2.876 -2.763 -2.655 -2.556 -2.462 -2.374 -2.297 -2.229 -2.166 -2.116 -2.074 -2.043 -2.021 -2.009 -2.01 -2.018 -2.041 -2.07 -2.109 -2.162 -2.22 -2.289 -2.367 -2.451 -5.619 -5.45 -5.284 -5.119 -4.954 -4.791 -4.63 -4.473 -4.32 -4.169 -4.019 -3.871 -3.729 -3.59 -3.456 -3.324 -3.196 -3.074 -2.96 -2.848 -2.742 -2.645 -2.554 -2.469 -2.394 -2.326 -2.265 -2.218 -2.177 -2.148 -2.127 -2.114 -2.117 -2.127 -2.147 -2.176 -2.217 -2.267 -2.323 -2.391 -2.468 -2.55 -5.669 -5.503 -5.337 -5.172 -5.009 -4.849 -4.691 -4.536 -4.384 -4.234 -4.085 -3.94 -3.8 -3.664 -3.531 -3.401 -3.277 -3.157 -3.044 -2.934 -2.832 -2.738 -2.647 -2.565 -2.494 -2.427 -2.369 -2.323 -2.283 -2.254 -2.235 -2.225 -2.226 -2.235 -2.254 -2.285 -2.323 -2.373 -2.43 -2.495 -2.571 -2.652 -5.722 -5.556 -5.391 -5.228 -5.067 -4.909 -4.753 -4.6 -4.449 -4.3 -4.154 -4.011 -3.873 -3.74 -3.608 -3.48 -3.36 -3.243 -3.13 -3.025 -2.924 -2.832 -2.743 -2.664 -2.594 -2.529 -2.474 -2.428 -2.389 -2.362 -2.344 -2.333 -2.336 -2.344 -2.364 -2.395 -2.431 -2.482 -2.538 -2.6 -2.675 -2.754 -5.775 -5.611 -5.448 -5.286 -5.127 -4.97 -4.816 -4.666 -4.516 -4.368 -4.225 -4.086 -3.95 -3.817 -3.686 -3.562 -3.444 -3.33 -3.218 -3.114 -3.019 -2.927 -2.84 -2.765 -2.696 -2.632 -2.58 -2.536 -2.497 -2.473 -2.453 -2.444 -2.448 -2.456 -2.476 -2.506 -2.544 -2.591 -2.645 -2.708 -2.782 -2.859 -5.831 -5.667 -5.505 -5.345 -5.188 -5.033 -4.882 -4.732 -4.584 -4.439 -4.297 -4.16 -4.027 -3.895 -3.767 -3.646 -3.531 -3.418 -3.309 -3.207 -3.114 -3.024 -2.941 -2.867 -2.799 -2.737 -2.688 -2.644 -2.607 -2.584 -2.565 -2.557 -2.561 -2.569 -2.591 -2.62 -2.656 -2.702 -2.757 -2.817 -2.888 -2.967 -5.886 -5.725 -5.565 -5.407 -5.252 -5.1 -4.95 -4.8 -4.653 -4.511 -4.372 -4.238 -4.106 -3.976 -3.851 -3.732 -3.619 -3.507 -3.401 -3.303 -3.211 -3.122 -3.042 -2.971 -2.903 -2.845 -2.797 -2.754 -2.719 -2.697 -2.678 -2.671 -2.676 -2.683 -2.703 -2.734 -2.768 -2.814 -2.869 -2.928 -2.998 -3.075 -5.943 -5.782 -5.625 -5.47 -5.318 -5.167 -5.018 -4.87 -4.726 -4.587 -4.451 -4.317 -4.186 -4.058 -3.936 -3.821 -3.708 -3.598 -3.495 -3.401 -3.31 -3.223 -3.145 -3.076 -3.012 -2.954 -2.908 -2.865 -2.832 -2.811 -2.793 -2.787 -2.791 -2.799 -2.82 -2.85 -2.883 -2.929 -2.983 -3.042 -3.109 -3.185 -3.349 -3.213 -3.08 -2.954 -2.829 -2.705 -2.584 -2.469 -2.359 -2.249 -2.143 -2.048 -1.96 -1.873 -1.791 -1.715 -1.653 -1.595 -1.542 -1.499 -1.467 -1.445 -1.429 -1.422 -1.425 -1.443 -1.467 -1.496 -1.539 -1.591 -1.653 -1.723 -1.797 -1.875 -1.97 -2.072 -2.174 -2.282 -2.394 -2.513 -2.64 -2.768 -3.279 -3.141 -3.006 -2.878 -2.749 -2.624 -2.5 -2.383 -2.271 -2.159 -2.049 -1.949 -1.857 -1.768 -1.682 -1.604 -1.537 -1.476 -1.418 -1.372 -1.339 -1.312 -1.289 -1.284 -1.287 -1.301 -1.322 -1.348 -1.395 -1.45 -1.511 -1.577 -1.653 -1.737 -1.834 -1.934 -2.036 -2.143 -2.262 -2.385 -2.513 -2.642 -3.217 -3.076 -2.94 -2.809 -2.679 -2.549 -2.424 -2.304 -2.189 -2.074 -1.964 -1.862 -1.765 -1.67 -1.581 -1.503 -1.43 -1.361 -1.301 -1.255 -1.216 -1.184 -1.158 -1.152 -1.154 -1.163 -1.179 -1.213 -1.256 -1.31 -1.366 -1.435 -1.516 -1.603 -1.697 -1.795 -1.9 -2.014 -2.135 -2.26 -2.387 -2.516 -3.158 -3.017 -2.878 -2.747 -2.616 -2.484 -2.358 -2.236 -2.116 -1.999 -1.885 -1.781 -1.681 -1.582 -1.488 -1.407 -1.33 -1.258 -1.193 -1.144 -1.1 -1.063 -1.038 -1.026 -1.024 -1.03 -1.048 -1.081 -1.123 -1.17 -1.229 -1.301 -1.383 -1.47 -1.563 -1.664 -1.774 -1.891 -2.01 -2.134 -2.262 -2.395 -3.109 -2.968 -2.829 -2.694 -2.559 -2.426 -2.297 -2.176 -2.054 -1.934 -1.82 -1.711 -1.606 -1.504 -1.409 -1.323 -1.238 -1.16 -1.099 -1.041 -0.99 -0.952 -0.925 -0.909 -0.9 -0.904 -0.923 -0.952 -0.99 -1.034 -1.101 -1.172 -1.251 -1.338 -1.431 -1.538 -1.651 -1.767 -1.886 -2.011 -2.145 -2.284 -3.07 -2.927 -2.786 -2.65 -2.515 -2.381 -2.251 -2.123 -2.001 -1.876 -1.76 -1.651 -1.542 -1.437 -1.34 -1.247 -1.16 -1.08 -1.01 -0.948 -0.891 -0.849 -0.819 -0.793 -0.783 -0.788 -0.804 -0.827 -0.861 -0.914 -0.976 -1.046 -1.12 -1.212 -1.311 -1.417 -1.528 -1.645 -1.765 -1.897 -2.034 -2.173 -3.037 -2.891 -2.75 -2.614 -2.479 -2.343 -2.212 -2.085 -1.959 -1.834 -1.716 -1.6 -1.488 -1.38 -1.28 -1.183 -1.091 -1.009 -0.934 -0.861 -0.805 -0.759 -0.719 -0.693 -0.68 -0.679 -0.686 -0.71 -0.746 -0.797 -0.854 -0.921 -1.002 -1.094 -1.194 -1.296 -1.408 -1.529 -1.656 -1.787 -1.923 -2.062 -3.012 -2.867 -2.725 -2.589 -2.45 -2.316 -2.181 -2.052 -1.926 -1.8 -1.68 -1.563 -1.446 -1.336 -1.232 -1.127 -1.036 -0.949 -0.866 -0.793 -0.73 -0.676 -0.631 -0.6 -0.583 -0.574 -0.581 -0.602 -0.637 -0.681 -0.737 -0.808 -0.891 -0.981 -1.077 -1.182 -1.299 -1.422 -1.549 -1.679 -1.813 -1.957 -2.997 -2.853 -2.71 -2.572 -2.435 -2.298 -2.165 -2.035 -1.905 -1.778 -1.655 -1.536 -1.415 -1.306 -1.196 -1.091 -0.993 -0.9 -0.813 -0.736 -0.667 -0.604 -0.554 -0.521 -0.494 -0.482 -0.486 -0.504 -0.532 -0.574 -0.632 -0.7 -0.781 -0.868 -0.968 -1.077 -1.193 -1.316 -1.442 -1.572 -1.714 -1.861 -2.987 -2.845 -2.701 -2.562 -2.426 -2.288 -2.155 -2.025 -1.893 -1.767 -1.643 -1.52 -1.401 -1.287 -1.172 -1.063 -0.962 -0.863 -0.771 -0.689 -0.612 -0.546 -0.493 -0.448 -0.417 -0.401 -0.398 -0.41 -0.433 -0.477 -0.533 -0.598 -0.673 -0.765 -0.868 -0.976 -1.089 -1.212 -1.343 -1.48 -1.62 -1.765 -2.988 -2.846 -2.705 -2.565 -2.428 -2.293 -2.158 -2.027 -1.894 -1.768 -1.641 -1.516 -1.395 -1.279 -1.162 -1.052 -0.944 -0.839 -0.746 -0.657 -0.574 -0.503 -0.44 -0.389 -0.353 -0.33 -0.32 -0.325 -0.351 -0.388 -0.436 -0.5 -0.581 -0.671 -0.77 -0.875 -0.992 -1.119 -1.252 -1.388 -1.528 -1.673 -2.999 -2.857 -2.716 -2.577 -2.441 -2.305 -2.171 -2.04 -1.909 -1.78 -1.653 -1.528 -1.405 -1.284 -1.166 -1.051 -0.939 -0.834 -0.731 -0.636 -0.549 -0.467 -0.401 -0.344 -0.3 -0.268 -0.252 -0.257 -0.272 -0.304 -0.352 -0.416 -0.492 -0.578 -0.677 -0.787 -0.906 -1.03 -1.161 -1.298 -1.44 -1.589 -3.015 -2.876 -2.735 -2.597 -2.462 -2.325 -2.194 -2.062 -1.931 -1.803 -1.675 -1.547 -1.423 -1.302 -1.181 -1.063 -0.948 -0.834 -0.729 -0.631 -0.535 -0.45 -0.375 -0.311 -0.258 -0.221 -0.201 -0.192 -0.204 -0.233 -0.279 -0.336 -0.408 -0.495 -0.596 -0.703 -0.821 -0.943 -1.077 -1.218 -1.362 -1.51 -3.042 -2.903 -2.766 -2.629 -2.495 -2.36 -2.228 -2.097 -1.967 -1.838 -1.709 -1.582 -1.456 -1.331 -1.207 -1.085 -0.967 -0.852 -0.741 -0.633 -0.535 -0.444 -0.361 -0.288 -0.23 -0.185 -0.154 -0.143 -0.149 -0.17 -0.208 -0.265 -0.337 -0.422 -0.518 -0.625 -0.743 -0.869 -1.001 -1.143 -1.287 -1.435 -3.078 -2.94 -2.804 -2.669 -2.534 -2.4 -2.27 -2.139 -2.011 -1.881 -1.752 -1.627 -1.497 -1.37 -1.246 -1.122 -0.999 -0.878 -0.764 -0.652 -0.546 -0.448 -0.358 -0.28 -0.212 -0.158 -0.123 -0.104 -0.099 -0.116 -0.152 -0.204 -0.271 -0.352 -0.445 -0.556 -0.674 -0.799 -0.931 -1.07 -1.215 -1.366 -3.119 -2.984 -2.848 -2.715 -2.583 -2.453 -2.323 -2.195 -2.066 -1.937 -1.808 -1.68 -1.551 -1.422 -1.293 -1.166 -1.041 -0.917 -0.796 -0.677 -0.568 -0.462 -0.368 -0.279 -0.207 -0.146 -0.1 -0.073 -0.065 -0.076 -0.103 -0.15 -0.214 -0.293 -0.387 -0.493 -0.608 -0.731 -0.865 -1.006 -1.154 -1.305 -3.169 -3.036 -2.904 -2.774 -2.644 -2.514 -2.385 -2.258 -2.129 -2.002 -1.872 -1.742 -1.612 -1.483 -1.352 -1.221 -1.091 -0.961 -0.837 -0.716 -0.597 -0.488 -0.385 -0.293 -0.211 -0.142 -0.09 -0.057 -0.04 -0.041 -0.063 -0.107 -0.167 -0.243 -0.333 -0.434 -0.551 -0.676 -0.81 -0.949 -1.094 -1.245 -3.229 -3.098 -2.967 -2.838 -2.71 -2.581 -2.457 -2.329 -2.203 -2.075 -1.946 -1.815 -1.681 -1.549 -1.414 -1.281 -1.149 -1.017 -0.885 -0.759 -0.637 -0.52 -0.412 -0.313 -0.224 -0.15 -0.09 -0.047 -0.023 -0.021 -0.038 -0.073 -0.125 -0.198 -0.288 -0.39 -0.503 -0.626 -0.756 -0.895 -1.041 -1.195 -3.294 -3.164 -3.036 -2.911 -2.784 -2.661 -2.536 -2.411 -2.285 -2.156 -2.027 -1.895 -1.761 -1.625 -1.487 -1.348 -1.211 -1.075 -0.941 -0.809 -0.682 -0.56 -0.443 -0.34 -0.246 -0.164 -0.097 -0.048 -0.018 -0.007 -0.014 -0.047 -0.098 -0.167 -0.248 -0.348 -0.459 -0.581 -0.712 -0.853 -0.996 -1.148 -3.367 -3.239 -3.116 -2.992 -2.869 -2.746 -2.622 -2.497 -2.371 -2.243 -2.112 -1.979 -1.843 -1.703 -1.563 -1.421 -1.278 -1.137 -0.999 -0.863 -0.73 -0.603 -0.485 -0.374 -0.273 -0.187 -0.113 -0.056 -0.02 -0.003 -0.008 -0.033 -0.076 -0.138 -0.219 -0.317 -0.425 -0.547 -0.676 -0.812 -0.955 -1.106 -3.445 -3.322 -3.2 -3.078 -2.956 -2.837 -2.716 -2.592 -2.469 -2.34 -2.206 -2.07 -1.928 -1.783 -1.641 -1.493 -1.348 -1.202 -1.057 -0.917 -0.783 -0.65 -0.528 -0.412 -0.308 -0.213 -0.134 -0.074 -0.031 -0.008 -0.004 -0.021 -0.064 -0.123 -0.201 -0.292 -0.398 -0.514 -0.642 -0.78 -0.925 -1.076 -3.53 -3.408 -3.29 -3.173 -3.053 -2.937 -2.818 -2.697 -2.571 -2.44 -2.304 -2.163 -2.018 -1.868 -1.717 -1.567 -1.417 -1.268 -1.121 -0.976 -0.837 -0.702 -0.573 -0.455 -0.345 -0.25 -0.165 -0.097 -0.047 -0.018 -0.012 -0.025 -0.06 -0.114 -0.184 -0.275 -0.379 -0.493 -0.622 -0.755 -0.898 -1.046 -3.619 -3.502 -3.387 -3.273 -3.159 -3.043 -2.925 -2.803 -2.675 -2.542 -2.401 -2.255 -2.104 -1.951 -1.796 -1.639 -1.483 -1.332 -1.183 -1.034 -0.891 -0.755 -0.623 -0.501 -0.387 -0.286 -0.198 -0.126 -0.071 -0.038 -0.025 -0.033 -0.062 -0.113 -0.181 -0.268 -0.367 -0.478 -0.602 -0.733 -0.876 -1.026 -3.716 -3.603 -3.492 -3.38 -3.267 -3.152 -3.038 -2.914 -2.784 -2.645 -2.499 -2.344 -2.186 -2.029 -1.87 -1.711 -1.554 -1.396 -1.243 -1.093 -0.945 -0.807 -0.672 -0.547 -0.431 -0.328 -0.235 -0.16 -0.102 -0.064 -0.046 -0.049 -0.074 -0.118 -0.182 -0.263 -0.36 -0.473 -0.593 -0.725 -0.864 -1.011 -3.819 -3.709 -3.6 -3.49 -3.38 -3.269 -3.155 -3.033 -2.895 -2.746 -2.59 -2.429 -2.264 -2.103 -1.94 -1.779 -1.618 -1.457 -1.302 -1.151 -1.003 -0.86 -0.724 -0.595 -0.478 -0.371 -0.276 -0.199 -0.138 -0.094 -0.071 -0.07 -0.091 -0.133 -0.194 -0.271 -0.365 -0.472 -0.59 -0.719 -0.855 -1.0 -3.926 -3.819 -3.712 -3.606 -3.5 -3.394 -3.279 -3.149 -2.999 -2.839 -2.674 -2.507 -2.339 -2.171 -2.006 -1.842 -1.679 -1.518 -1.359 -1.207 -1.056 -0.911 -0.776 -0.645 -0.527 -0.417 -0.322 -0.241 -0.177 -0.13 -0.105 -0.1 -0.117 -0.154 -0.209 -0.282 -0.373 -0.477 -0.593 -0.72 -0.856 -0.998 -4.036 -3.933 -3.83 -3.728 -3.627 -3.521 -3.402 -3.253 -3.089 -2.921 -2.75 -2.579 -2.407 -2.237 -2.068 -1.902 -1.738 -1.574 -1.415 -1.262 -1.111 -0.965 -0.828 -0.698 -0.577 -0.464 -0.37 -0.287 -0.22 -0.17 -0.142 -0.134 -0.147 -0.181 -0.232 -0.304 -0.391 -0.489 -0.604 -0.726 -0.86 -0.997 -4.15 -4.051 -3.953 -3.856 -3.756 -3.651 -3.506 -3.336 -3.164 -2.991 -2.817 -2.643 -2.469 -2.297 -2.127 -1.959 -1.794 -1.63 -1.469 -1.315 -1.164 -1.02 -0.881 -0.748 -0.628 -0.517 -0.419 -0.334 -0.267 -0.216 -0.186 -0.175 -0.184 -0.213 -0.263 -0.329 -0.41 -0.507 -0.62 -0.74 -0.872 -1.011 -4.27 -4.174 -4.08 -3.986 -3.889 -3.758 -3.583 -3.408 -3.23 -3.053 -2.878 -2.701 -2.526 -2.353 -2.181 -2.013 -1.847 -1.684 -1.523 -1.368 -1.217 -1.071 -0.934 -0.801 -0.681 -0.57 -0.472 -0.386 -0.317 -0.265 -0.232 -0.219 -0.225 -0.252 -0.298 -0.362 -0.44 -0.536 -0.643 -0.762 -0.889 -1.026 -4.393 -4.3 -4.209 -4.119 -4.007 -3.828 -3.647 -3.467 -3.288 -3.109 -2.932 -2.755 -2.579 -2.404 -2.233 -2.065 -1.899 -1.734 -1.574 -1.42 -1.269 -1.122 -0.987 -0.854 -0.735 -0.623 -0.526 -0.439 -0.369 -0.319 -0.284 -0.269 -0.271 -0.296 -0.339 -0.399 -0.475 -0.567 -0.67 -0.787 -0.911 -1.047 -4.518 -4.429 -4.341 -4.25 -4.067 -3.884 -3.701 -3.52 -3.339 -3.16 -2.982 -2.805 -2.628 -2.453 -2.281 -2.114 -1.949 -1.784 -1.624 -1.471 -1.321 -1.175 -1.041 -0.91 -0.791 -0.68 -0.582 -0.497 -0.426 -0.374 -0.338 -0.32 -0.324 -0.346 -0.385 -0.441 -0.517 -0.605 -0.705 -0.82 -0.941 -1.072 -4.645 -4.56 -4.476 -4.302 -4.117 -3.933 -3.75 -3.568 -3.386 -3.207 -3.029 -2.851 -2.675 -2.501 -2.331 -2.163 -1.997 -1.833 -1.676 -1.523 -1.373 -1.229 -1.095 -0.966 -0.847 -0.737 -0.641 -0.556 -0.487 -0.434 -0.398 -0.379 -0.38 -0.4 -0.437 -0.491 -0.563 -0.646 -0.744 -0.854 -0.974 -1.103 -4.776 -4.694 -4.533 -4.347 -4.161 -3.977 -3.794 -3.611 -3.43 -3.251 -3.073 -2.896 -2.721 -2.547 -2.378 -2.211 -2.045 -1.882 -1.726 -1.575 -1.426 -1.284 -1.151 -1.023 -0.906 -0.796 -0.702 -0.618 -0.548 -0.496 -0.458 -0.44 -0.44 -0.458 -0.492 -0.545 -0.614 -0.696 -0.792 -0.899 -1.016 -1.139 -4.908 -4.759 -4.573 -4.386 -4.201 -4.017 -3.834 -3.653 -3.472 -3.293 -3.115 -2.938 -2.764 -2.592 -2.423 -2.258 -2.092 -1.931 -1.777 -1.627 -1.478 -1.34 -1.207 -1.081 -0.966 -0.858 -0.766 -0.681 -0.616 -0.563 -0.525 -0.506 -0.505 -0.521 -0.552 -0.605 -0.668 -0.748 -0.841 -0.944 -1.059 -1.182 -4.983 -4.796 -4.61 -4.424 -4.24 -4.056 -3.873 -3.692 -3.512 -3.334 -3.157 -2.98 -2.807 -2.636 -2.47 -2.305 -2.141 -1.982 -1.829 -1.68 -1.536 -1.397 -1.265 -1.14 -1.028 -0.924 -0.831 -0.748 -0.681 -0.631 -0.593 -0.574 -0.573 -0.586 -0.618 -0.667 -0.728 -0.807 -0.896 -0.998 -1.11 -1.231 -5.016 -4.829 -4.642 -4.457 -4.274 -4.091 -3.91 -3.73 -3.552 -3.374 -3.197 -3.023 -2.851 -2.682 -2.516 -2.352 -2.192 -2.034 -1.882 -1.733 -1.593 -1.456 -1.326 -1.205 -1.092 -0.989 -0.898 -0.82 -0.752 -0.703 -0.665 -0.647 -0.645 -0.658 -0.688 -0.734 -0.795 -0.869 -0.957 -1.055 -1.163 -1.283 -5.048 -4.862 -4.677 -4.493 -4.31 -4.128 -3.947 -3.768 -3.59 -3.413 -3.238 -3.065 -2.896 -2.728 -2.562 -2.4 -2.241 -2.086 -1.936 -1.789 -1.648 -1.515 -1.387 -1.269 -1.156 -1.058 -0.966 -0.891 -0.825 -0.777 -0.741 -0.721 -0.719 -0.729 -0.761 -0.804 -0.864 -0.936 -1.019 -1.117 -1.221 -1.339 -5.08 -4.895 -4.71 -4.526 -4.344 -4.163 -3.985 -3.806 -3.628 -3.452 -3.278 -3.107 -2.94 -2.774 -2.61 -2.45 -2.292 -2.14 -1.99 -1.847 -1.709 -1.576 -1.452 -1.336 -1.227 -1.129 -1.041 -0.966 -0.902 -0.855 -0.82 -0.801 -0.798 -0.811 -0.838 -0.88 -0.936 -1.007 -1.087 -1.183 -1.285 -1.4 -5.109 -4.925 -4.742 -4.56 -4.38 -4.201 -4.022 -3.845 -3.668 -3.493 -3.321 -3.152 -2.986 -2.821 -2.659 -2.501 -2.345 -2.194 -2.047 -1.905 -1.77 -1.64 -1.518 -1.404 -1.295 -1.202 -1.117 -1.043 -0.98 -0.934 -0.899 -0.882 -0.879 -0.89 -0.917 -0.957 -1.013 -1.081 -1.16 -1.252 -1.353 -1.463 -5.14 -4.957 -4.775 -4.595 -4.416 -4.238 -4.06 -3.882 -3.707 -3.535 -3.366 -3.199 -3.033 -2.868 -2.707 -2.551 -2.4 -2.25 -2.104 -1.966 -1.834 -1.705 -1.586 -1.474 -1.371 -1.278 -1.193 -1.123 -1.063 -1.018 -0.984 -0.966 -0.964 -0.975 -1.001 -1.039 -1.094 -1.159 -1.238 -1.325 -1.426 -1.531 -5.174 -4.992 -4.812 -4.632 -4.453 -4.275 -4.098 -3.924 -3.751 -3.58 -3.411 -3.246 -3.081 -2.919 -2.76 -2.606 -2.456 -2.309 -2.165 -2.03 -1.899 -1.772 -1.657 -1.547 -1.445 -1.355 -1.273 -1.205 -1.146 -1.103 -1.071 -1.052 -1.051 -1.059 -1.087 -1.123 -1.177 -1.24 -1.317 -1.403 -1.5 -1.604 -5.207 -5.026 -4.847 -4.668 -4.491 -4.313 -4.138 -3.965 -3.794 -3.625 -3.458 -3.293 -3.13 -2.969 -2.814 -2.663 -2.513 -2.368 -2.23 -2.096 -1.966 -1.845 -1.73 -1.622 -1.525 -1.435 -1.357 -1.289 -1.234 -1.191 -1.161 -1.145 -1.142 -1.152 -1.177 -1.213 -1.265 -1.325 -1.401 -1.484 -1.579 -1.683 -5.242 -5.062 -4.884 -4.706 -4.529 -4.353 -4.179 -4.008 -3.839 -3.672 -3.507 -3.343 -3.182 -3.025 -2.872 -2.721 -2.572 -2.43 -2.295 -2.163 -2.034 -1.917 -1.805 -1.7 -1.606 -1.517 -1.443 -1.376 -1.323 -1.28 -1.253 -1.235 -1.234 -1.242 -1.268 -1.305 -1.354 -1.415 -1.487 -1.569 -1.66 -1.761 -5.279 -5.1 -4.922 -4.745 -4.569 -4.394 -4.222 -4.053 -3.886 -3.721 -3.556 -3.393 -3.235 -3.08 -2.93 -2.782 -2.636 -2.496 -2.363 -2.232 -2.109 -1.994 -1.883 -1.783 -1.689 -1.602 -1.531 -1.465 -1.416 -1.373 -1.348 -1.332 -1.33 -1.34 -1.364 -1.397 -1.447 -1.504 -1.576 -1.656 -1.746 -1.846 -5.316 -5.138 -4.961 -4.785 -4.612 -4.44 -4.27 -4.102 -3.936 -3.771 -3.609 -3.449 -3.292 -3.14 -2.99 -2.844 -2.702 -2.565 -2.433 -2.306 -2.185 -2.071 -1.962 -1.864 -1.774 -1.691 -1.621 -1.558 -1.509 -1.469 -1.443 -1.427 -1.427 -1.437 -1.461 -1.495 -1.542 -1.599 -1.667 -1.747 -1.834 -1.932 -5.355 -5.177 -5.002 -4.828 -4.655 -4.485 -4.317 -4.151 -3.986 -3.824 -3.663 -3.505 -3.351 -3.201 -3.052 -2.907 -2.769 -2.635 -2.504 -2.379 -2.263 -2.15 -2.044 -1.951 -1.86 -1.783 -1.713 -1.654 -1.606 -1.569 -1.543 -1.528 -1.528 -1.536 -1.561 -1.593 -1.639 -1.695 -1.762 -1.84 -1.924 -2.021 -5.394 -5.218 -5.044 -4.872 -4.702 -4.533 -4.367 -4.202 -4.038 -3.877 -3.719 -3.565 -3.413 -3.264 -3.116 -2.974 -2.839 -2.707 -2.578 -2.457 -2.343 -2.232 -2.13 -2.038 -1.951 -1.874 -1.807 -1.751 -1.704 -1.668 -1.644 -1.63 -1.63 -1.64 -1.662 -1.696 -1.739 -1.795 -1.86 -1.936 -2.018 -2.111 -5.436 -5.262 -5.089 -4.918 -